<VTKFile type="UnstructuredGrid">
<UnstructuredGrid>
<Piece NumberOfPoints="2232" NumberOfCells="10909">
<Points>
<DataArray type="Float64" Name="coordinates" NumberOfComponents="3" format="ascii">
500 500 28.5 
500 0 28.5 
0 0 28.5 
0 500 28.5 
500 500 0 
500 0 0 
0 0 0 
0 500 0 
500 500 500 
500 0 500 
0 0 500 
-3.031e-14 500 500 
0 0 14.25 
500 0 14.25 
299.919 500 28.5 
399.902 500 28.5 
199.897 500 28.5 
99.9485 500 28.5 
500 253.276 28.5 
500 129.573 28.5 
500 49.3038 28.5 
500 24.6979 28.5 
500 73.8995 28.5 
500 98.4952 28.5 
500 205.586 28.5 
500 167.58 28.5 
500 321.601 28.5 
500 410.615 28.5 
250.78 0 28.5 
125.683 0 28.5 
50.383 0 28.5 
25.1915 0 28.5 
75.516 0 28.5 
100.599 0 28.5 
175.768 0 28.5 
150.726 0 28.5 
200.784 0 28.5 
225.782 0 28.5 
375.575 0 28.5 
300.734 0 28.5 
275.762 0 28.5 
325.687 0 28.5 
350.641 0 28.5 
425.358 0 28.5 
400.466 0 28.5 
450.241 0 28.5 
475.12 0 28.5 
0 256.368 28.5 
0 411.942 28.5 
0 324.33 28.5 
0 134.27 28.5 
0 211.032 28.5 
0 165.697 28.5 
0 75.2459 28.5 
0 104.758 28.5 
0 49.9159 28.5 
0 24.9846 28.5 
299.919 500 0 
399.902 500 0 
199.897 500 0 
99.9485 500 0 
500 321.601 0 
500 410.615 0 
500 142.14 0 
500 69.3485 0 
500 23.1594 0 
500 46.2539 0 
500 92.1192 0 
500 115.361 0 
500 178.646 0 
500 213.344 0 
500 260.817 0 
250.78 0 0 
125.676 0 0 
50.383 0 0 
25.1964 0 0 
75.516 0 0 
100.606 0 0 
175.772 0 0 
150.724 0 0 
200.785 0 0 
225.783 0 0 
375.577 0 0 
300.729 0 0 
275.755 0 0 
325.694 0 0 
350.635 0 0 
425.378 0 0 
400.478 0 0 
450.255 0 0 
475.128 0 0 
0 411.942 0 
0 324.33 0 
0 211.918 0 
0 257.057 0 
0 103.338 0 
0 171.374 0 
0 133.129 0 
0 50.1314 0 
0 76.7346 0 
0 25.0657 0 
0 0 318.94 
0 0 404.963 
0 0 191.966 
0 0 250.946 
0 0 124.866 
0 0 150.057 
0 0 99.6747 
0 0 75.6748 
0 0 51.6748 
500 0 326.348 
500 0 404.913 
500 0 189.493 
500 0 252.851 
500 0 126.386 
500 0 157.939 
500 0 98.446 
500 0 74.854 
500 0 51.6748 
500 500 310.576 
500 500 405.288 
500 500 215.991 
500 500 122.246 
-3.031e-14 500 310.351 
-3.031e-14 500 405.161 
-3.031e-14 500 215.991 
-3.031e-14 500 122.246 
299.921 500 500 
399.902 500 500 
199.943 500 500 
99.9654 500 500 
500 200.1 500 
500 100.05 500 
500 300.103 500 
500 400.052 500 
200.081 0 500 
100.098 0 500 
300.103 0 500 
400.052 0 500 
-1.81811e-14 299.919 500 
-2.42455e-14 399.959 500 
-1.21178e-14 199.897 500 
-6.05888e-15 99.9485 500 
0 144.667 14.2279 
0 89.5331 14.4138 
0 117.647 14.2232 
0 62.1574 14.1878 
0 33.7769 14.2481 
33.9889 0 14.249 
61.8747 0 14.2498 
87.7798 0 14.2496 
113.071 0 14.2508 
138.185 0 14.2497 
163.244 0 14.2497 
188.275 0 14.2501 
213.285 0 14.2501 
238.282 0 14.2501 
263.269 0 14.2505 
288.245 0 14.2499 
313.212 0 14.2493 
338.17 0 14.2507 
363.129 0 14.2497 
388.077 0 14.2494 
413.142 0 14.2494 
438.647 0 14.2502 
466.749 0 14.2501 
500 133.461 14.7276 
500 107.194 14.3461 
500 82.8258 14.3459 
500 58.8348 14.3903 
500 32.3059 14.2886 
254.354 267.148 0 
78.3563 431.145 0 
117.55 300.263 0 
372.221 313.621 0 
71.6277 64.9997 0 
436.85 441.241 0 
219.232 123.044 0 
16.895 25.4763 0 
433.774 70.9045 0 
483.35 22.7585 0 
51.5481 291.447 0 
191.669 297.965 0 
65.4664 359.83 0 
263.107 432.706 0 
236.731 356.808 0 
171.714 431.182 0 
301.591 296.939 0 
420.41 369.466 0 
88.9552 34.9483 0 
40.2791 109.22 0 
65.7636 40.2714 0 
37.3431 70.9669 0 
218.714 78.3252 0 
262.743 221.163 0 
153.335 92.4841 0 
263.063 62.1388 0 
383.743 34.0185 0 
466.916 85.877 0 
424.809 45.3407 0 
447.443 45.2709 0 
34.5061 239.202 0 
323.531 369.112 0 
148.182 363.272 0 
367.726 179.882 0 
467.657 211.255 0 
442.616 292.609 0 
115.681 17.1537 0 
84.8957 54.0079 0 
91.864 16.9735 0 
17.499 147.629 0 
17.9832 114.513 0 
46.7827 89.7746 0 
66.9753 18.6972 0 
41.4018 26.0696 0 
17.6609 83.773 0 
58.8052 76.852 0 
32.7109 90.3452 0 
23.0754 52.5101 0 
206.942 37.3117 0 
230.253 96.2853 0 
221.915 238.019 0 
229.47 159.882 0 
301.161 243.759 0 
102.667 99.016 0 
190.179 100.399 0 
181.451 76.7677 0 
279.075 39.6396 0 
253.433 91.0344 0 
238.952 65.8322 0 
367.565 18.0349 0 
403.386 50.8292 0 
332.138 43.4381 0 
391.391 16.7565 0 
480.968 102.304 0 
480.176 125.025 0 
485.124 82.5245 0 
446.684 90.8139 0 
437.562 22.0079 0 
404.837 33.3358 0 
456.95 66.2772 0 
471.751 43.8342 0 
24.0476 192.131 0 
355.639 435.017 0 
338.003 209.303 0 
297.111 195.762 0 
394.702 124.011 0 
384.931 217.372 0 
140.913 17.9517 0 
48.8215 51.7013 0 
192.115 18.6224 0 
218.103 18.8895 0 
153.326 253.092 0 
235.078 193.111 0 
93.967 75.6959 0 
104.675 58.1206 0 
138.591 77.4827 0 
118.216 83.8045 0 
59.6093 102.757 0 
64.2749 178.916 0 
78.9242 92.6866 0 
209.275 102.277 0 
170.635 95.1998 0 
193.935 57.155 0 
201.241 79.4898 0 
267.906 19.5922 0 
238.908 120.026 0 
216.476 57.8812 0 
288.067 59.2057 0 
305.029 40.8262 0 
347.351 112.409 0 
358.954 36.853 0 
318.095 20.9279 0 
468.097 180.532 0 
459.673 21.3811 0 
415.905 19.015 0 
479.519 63.9826 0 
348.531 257.583 0 
262.048 178.129 0 
405.568 100.244 0 
382.185 148.552 0 
425.909 96.0257 0 
199.938 154.477 0 
184.161 232.651 0 
110.451 36.6264 0 
125.155 58.7273 0 
51.3285 206.324 0 
81.211 137.705 0 
116.125 233.682 0 
38.6588 159.786 0 
138.985 102.565 0 
181.576 36.943 0 
242.654 19.2986 0 
254.043 40.5034 0 
273.829 77.7087 0 
292.628 20.1584 0 
357.881 140.067 0 
320.394 142.608 0 
371.246 121.939 0 
339.284 90.9837 0 
377.858 50.8567 0 
341.846 20.4371 0 
477.722 151.261 0 
433.1 141.99 0 
439.481 197.814 0 
408.278 254.325 0 
251.455 142.753 0 
413.299 73.2333 0 
401.443 180.65 0 
461.205 109.622 0 
171.249 55.1779 0 
147.024 54.1402 0 
156.46 36.0788 0 
195.988 124.249 0 
206.252 194.732 0 
132.221 36.7988 0 
71.1351 119.911 0 
91.1284 116.114 0 
51.7481 127.988 0 
62.4422 148.412 0 
148.632 204.951 0 
86.9482 205.827 0 
78.4882 252.732 0 
230.877 39.7156 0 
315.644 171.229 0 
335.308 125.827 0 
301.112 102.16 0 
342.201 159.438 0 
384.115 102.989 0 
312.929 62.1202 0 
334.842 68.0995 0 
361.302 99.3383 0 
417.473 122.267 0 
439.825 116.351 0 
450.704 162.921 0 
426.494 168.516 0 
393.008 64.9121 0 
457.344 134.186 0 
160.182 73.6363 0 
166.556 18.2297 0 
177.407 117.251 0 
123.68 111.928 0 
32.1356 125.618 0 
84.8398 162.507 0 
146.473 162.297 0 
309.886 123.41 0 
277.811 97.4655 0 
286 121.129 0 
317.653 84.7139 0 
355.365 56.7274 0 
355.176 77.6677 0 
373.718 86.437 0 
407.562 148.443 0 
392.715 83.2255 0 
99.7759 140.457 0 
171.406 143.752 0 
144.318 130.386 0 
262.462 117.64 0 
295.72 80.0793 0 
272.292 142.107 0 
324.246 106.39 0 
374.708 68.8279 0 
109.76 122.887 0 
124.458 141.771 0 
176.066 180.313 0 
159.118 114.997 0 
297.559 143.777 0 
287.952 167.1 0 
116.24 180.028 0 
253.939 257.595 28.5 
78.2593 431.176 28.5 
116.506 302.715 28.5 
372.537 309.799 28.5 
72.0952 64.2492 28.5 
436.726 438.4 28.5 
219.148 123.374 28.5 
16.8993 25.1461 28.5 
426.665 73.9222 28.5 
478.196 20.0678 28.5 
51.3738 295.428 28.5 
190.816 297.193 28.5 
65.7807 360.183 28.5 
264.015 431.545 28.5 
238.682 351.972 28.5 
173.052 429.208 28.5 
441.551 289.186 28.5 
301.882 286.707 28.5 
419.824 367.973 28.5 
90.3091 33.0565 28.5 
41.0838 108.058 28.5 
66.2553 39.8863 28.5 
37.8547 67.6648 28.5 
219.694 78.4944 28.5 
253.679 217.869 28.5 
153.131 91.5673 28.5 
263.148 60.2793 28.5 
390.584 20.8063 28.5 
464.036 95.4331 28.5 
426.866 46.3541 28.5 
452.383 35.5883 28.5 
32.8878 236.841 28.5 
323.812 365.806 28.5 
148.119 362.531 28.5 
450.695 230.702 28.5 
367.69 172.748 28.5 
115.674 17.1014 28.5 
85.4433 52.3223 28.5 
91.6195 16.3033 28.5 
17.3526 147.252 28.5 
16.7059 114.354 28.5 
47.8587 88.8358 28.5 
66.9693 18.8274 28.5 
41.3391 26.0762 28.5 
17.4819 83.1932 28.5 
59.2137 75.9129 28.5 
32.5553 89.4761 28.5 
22.9811 52.3158 28.5 
207.526 36.4395 28.5 
230.179 95.3926 28.5 
220.518 233.049 28.5 
230.95 157.487 28.5 
288.915 228.671 28.5 
102.658 99.2464 28.5 
190.209 100.385 28.5 
181.573 76.6128 28.5 
281.541 39.4455 28.5 
252.252 88.4651 28.5 
239.159 64.7876 28.5 
370.373 22.8015 28.5 
402.243 42.1015 28.5 
333.006 41.698 28.5 
481.532 111.91 28.5 
480.178 93.8324 28.5 
484.798 80.2684 28.5 
443.295 88.5811 28.5 
433.905 20.1085 28.5 
413.151 22.08 28.5 
475.444 42.7865 28.5 
22.8868 190.186 28.5 
356.285 433.157 28.5 
474.11 208.135 28.5 
344.472 199.93 28.5 
310.212 202.856 28.5 
396.052 113.542 28.5 
416.375 203.319 28.5 
139.99 17.1984 28.5 
48.9035 51.8437 28.5 
193.013 18.3714 28.5 
217.912 18.5153 28.5 
152.802 255.414 28.5 
233.767 190.577 28.5 
94.4749 75.8672 28.5 
105.241 58.0365 28.5 
137.159 77.7251 28.5 
118.684 85.2843 28.5 
60.1856 102.509 28.5 
64.5518 179.353 28.5 
79.6977 91.4173 28.5 
209.187 102.168 28.5 
170.66 95.1902 28.5 
194.377 57.0669 28.5 
201.292 79.2046 28.5 
269.752 19.4034 28.5 
237.078 118.932 28.5 
216.698 56.6997 28.5 
291.402 60.0921 28.5 
308.657 40.7545 28.5 
346.166 108.123 28.5 
356.269 40.1186 28.5 
328.652 19.3087 28.5 
484.091 139.893 28.5 
464.737 77.4851 28.5 
457.899 15.9385 28.5 
480.451 61.5393 28.5 
345.294 249.942 28.5 
266.165 181.334 28.5 
403.75 88.3642 28.5 
384.58 136.899 28.5 
419.077 102.846 28.5 
378.414 213.95 28.5 
202.232 151.705 28.5 
183.291 231.369 28.5 
111.378 35.5227 28.5 
125.168 58.8212 28.5 
47.7546 204.263 28.5 
81.4767 137.71 28.5 
116.963 236.04 28.5 
40.2889 161.154 28.5 
139.182 102.541 28.5 
181.851 36.6847 28.5 
243.117 19.1079 28.5 
255.028 40.0156 28.5 
275.346 77.3033 28.5 
299.509 18.6356 28.5 
357.979 137.363 28.5 
316.115 142.504 28.5 
371.114 114.928 28.5 
338.935 81.3207 28.5 
351.396 20.1693 28.5 
379.282 40.445 28.5 
482.102 175.388 28.5 
451.129 60.097 28.5 
254.698 143.186 28.5 
407.305 64.4723 28.5 
395.936 173.135 28.5 
454.568 108.591 28.5 
400.367 254.466 28.5 
171.296 55.1335 28.5 
147.043 54.9744 28.5 
155.813 35.1939 28.5 
195.962 124.249 28.5 
205.591 189.129 28.5 
131.645 36.6872 28.5 
73.3582 117.323 28.5 
90.9853 116.457 28.5 
52.0918 129.851 28.5 
63.9609 148.868 28.5 
149.752 201.942 28.5 
86.27 204.449 28.5 
77.7722 250.901 28.5 
232.685 37.1132 28.5 
318.47 166.504 28.5 
[...]
<PointData>
<DataArray type="Float64" Name="residual" NumberOfComponents="1" format="ascii">
-4.80335e-15 
-9.31703e-16 
-1.04651e-13 
-1.62339e-15 
6.08681e-15 
1.9129e-16 
-4.59973e-14 
1.15561e-16 
8.88421e-09 
-9.37924e-09 
-1.24824e-07 
2.7691e-08 
5.20396e-14 
-4.10904e-16 
-6.45724e-15 
-6.44093e-11 
-1.04289e-10 
1.03707e-09 
-4.4674e-15 
2.98603e-16 
-1.90094e-16 
-9.47099e-16 
-1.69703e-12 
-1.18529e-11 
-1.87252e-15 
-1.2334e-11 
3.36569e-11 
2.24666e-10 
-8.54796e-15 
1.03639e-10 
4.66362e-11 
1.1684e-12 
2.13469e-10 
-4.82532e-10 
4.05177e-13 
-3.62789e-10 
-1.50826e-10 
-1.5279e-10 
7.26731e-16 
-1.93248e-15 
3.6584e-11 
-2.70203e-11 
3.86447e-11 
-7.38161e-16 
-2.33513e-11 
2.2322e-11 
-4.3395e-11 
3.49389e-15 
-9.93689e-11 
3.32903e-10 
-4.56807e-15 
2.37596e-11 
-3.27824e-11 
-1.25423e-14 
-1.72071e-11 
-1.11007e-11 
-8.65082e-10 
-8.69135e-11 
-5.69198e-11 
7.85058e-11 
-5.88929e-11 
1.0869e-10 
-2.56144e-10 
2.22433e-11 
-2.01954e-16 
-2.16997e-12 
-1.81176e-12 
4.82788e-13 
-1.35918e-11 
1.69211e-11 
-4.68865e-11 
1.15331e-10 
-3.80124e-15 
1.58117e-10 
2.68687e-11 
-2.67184e-11 
1.1265e-10 
5.5868e-10 
2.99168e-13 
-8.94042e-10 
7.377e-10 
8.58697e-11 
-1.20103e-16 
-1.69268e-15 
5.09567e-11 
3.8332e-11 
1.01998e-11 
1.45501e-16 
1.03546e-11 
7.24706e-12 
-8.6567e-12 
5.42397e-10 
2.54e-10 
2.42052e-10 
4.34364e-10 
-1.06853e-14 
-3.67469e-11 
5.83869e-13 
1.05325e-15 
6.239e-11 
-1.79982e-10 
-1.56438e-15 
-7.84467e-15 
-1.87927e-15 
-1.0997e-12 
-1.72294e-14 
-8.65406e-12 
-1.12801e-11 
3.47401e-11 
-2.00876e-10 
-3.82884e-15 
-3.33168e-15 
1.92683e-15 
1.25088e-11 
1.66202e-17 
-1.88515e-12 
-5.26109e-14 
-2.05774e-12 
-1.18972e-12 
2.87035e-15 
-1.03259e-14 
-4.49537e-11 
2.65601e-12 
-2.19479e-15 
9.24993e-15 
-9.80353e-12 
6.02133e-10 
-1.6305e-07 
4.24414e-08 
-2.42678e-07 
-2.04438e-07 
6.39695e-08 
2.02526e-08 
2.52658e-08 
-2.46878e-08 
-3.32713e-07 
-9.23519e-08 
-6.79768e-08 
1.87318e-08 
-3.72065e-07 
-3.92332e-07 
-1.95484e-07 
-2.42493e-07 
1.05627e-10 
-6.68408e-10 
1.07263e-10 
6.91699e-11 
2.25636e-11 
-4.22543e-09 
-5.70936e-09 
-1.02039e-09 
3.95839e-11 
-4.27716e-09 
-6.12929e-09 
1.0941e-09 
1.06861e-09 
-2.78126e-12 
7.75015e-12 
-1.61193e-10 
-8.91561e-11 
7.46826e-11 
7.00563e-11 
-2.0991e-11 
-6.32511e-11 
4.05906e-11 
-6.78922e-12 
-3.33592e-13 
2.93859e-12 
-4.37433e-12 
-1.46804e-11 
4.77997e-11 
2.77673e-15 
2.90603e-09 
4.30307e-15 
3.33381e-15 
4.15801e-12 
4.39074e-10 
-5.5246e-14 
-3.92055e-10 
-7.22714e-16 
-6.14763e-11 
1.21944e-09 
3.7168e-11 
-9.07221e-10 
2.26282e-10 
-3.83249e-10 
8.85012e-10 
1.03792e-10 
-8.02723e-11 
2.18913e-10 
-2.80143e-14 
5.72881e-11 
1.40532e-14 
-2.70472e-14 
5.85724e-11 
-6.88079e-14 
-1.29622e-14 
-9.0554e-16 
-4.94722e-16 
-7.79803e-16 
3.40873e-16 
-6.04437e-11 
-1.31919e-11 
1.54808e-10 
2.55602e-15 
-6.28488e-11 
2.21823e-10 
8.80546e-10 
5.90023e-11 
3.1555e-09 
1.30326e-10 
2.37261e-11 
3.52383e-11 
-2.82408e-09 
-2.16074e-09 
-8.26099e-10 
1.5457e-09 
-1.27093e-10 
1.02419e-09 
-3.19894e-14 
-2.27324e-14 
-4.75317e-10 
2.1012e-10 
-4.80529e-11 
-3.96661e-13 
5.42596e-15 
-6.44921e-14 
-3.29066e-16 
1.14739e-10 
1.71357e-10 
-2.41243e-10 
1.9461e-11 
-5.90393e-16 
-9.15256e-11 
-3.38004e-11 
-4.38157e-11 
2.12806e-12 
-7.53738e-12 
2.37919e-12 
7.05936e-11 
-8.71136e-12 
-3.28255e-11 
-9.00776e-11 
-7.7127e-10 
-5.36427e-11 
-4.51358e-11 
-2.42329e-16 
2.00915e-10 
-2.96578e-09 
9.01285e-10 
1.45257e-09 
-1.15807e-10 
1.54168e-10 
1.44194e-10 
8.51545e-10 
6.94085e-10 
4.41645e-13 
4.80326e-10 
-3.04676e-10 
-4.65029e-15 
4.39843e-10 
2.79866e-10 
5.64729e-10 
6.97227e-10 
2.60878e-10 
4.50521e-10 
6.8968e-11 
1.42157e-09 
4.51181e-11 
6.84718e-11 
-1.08288e-16 
-2.26016e-11 
5.94535e-10 
-2.77872e-11 
-2.27035e-11 
3.04186e-11 
-1.58975e-11 
-3.35261e-11 
5.2914e-11 
-2.18941e-16 
-9.45287e-11 
-9.00984e-12 
5.89997e-10 
-6.95966e-10 
7.46469e-10 
1.44956e-09 
7.1531e-11 
-2.01815e-14 
8.94701e-11 
2.13394e-10 
7.5225e-10 
-2.82431e-10 
-1.31919e-09 
3.98441e-10 
3.34891e-10 
1.60807e-10 
-7.09288e-11 
-6.77283e-16 
2.20934e-11 
-1.66578e-11 
-6.39433e-11 
3.94723e-11 
7.28163e-11 
-4.8646e-16 
1.50409e-10 
1.64006e-10 
4.4408e-10 
-8.30792e-11 
-3.33234e-11 
3.77738e-11 
8.6657e-11 
7.10571e-10 
-7.09825e-12 
6.04065e-10 
7.14157e-10 
1.37612e-09 
9.10115e-11 
8.45865e-10 
-1.30272e-10 
-4.11434e-10 
-2.65292e-10 
-5.92946e-10 
-1.08591e-09 
6.50327e-10 
-3.43808e-11 
1.49769e-11 
-6.22189e-16 
1.74531e-10 
-1.46184e-11 
3.13386e-10 
1.02671e-10 
-8.56589e-11 
4.05598e-11 
2.47789e-11 
4.0948e-11 
9.32737e-11 
5.48492e-12 
-2.78565e-11 
9.3964e-10 
-2.00769e-09 
1.69643e-10 
1.40154e-09 
-2.70508e-10 
-2.53238e-10 
-1.9857e-10 
2.23532e-11 
3.81298e-10 
1.17494e-10 
2.5972e-10 
7.94921e-11 
4.11014e-11 
5.45236e-11 
8.54982e-11 
7.20469e-12 
-2.00562e-10 
5.71191e-10 
5.41834e-10 
5.12161e-10 
3.35233e-10 
4.13187e-10 
1.79361e-10 
5.14797e-11 
6.34988e-10 
-4.488e-10 
-4.03685e-10 
9.70614e-10 
2.77237e-10 
2.49801e-10 
-3.62164e-10 
9.13284e-10 
6.22751e-10 
-6.02239e-10 
-3.5571e-10 
2.00014e-09 
4.65774e-12 
1.04163e-09 
-2.41402e-09 
-5.18797e-11 
5.93919e-11 
9.47394e-10 
-8.95473e-10 
-8.54842e-10 
-2.29865e-10 
4.77056e-10 
8.60052e-10 
4.0921e-10 
5.5716e-10 
4.70935e-11 
4.59876e-09 
-9.48747e-10 
1.75803e-09 
9.79481e-11 
3.65679e-10 
3.52577e-10 
-5.68258e-10 
7.39435e-10 
-7.73832e-11 
7.2268e-11 
6.59244e-11 
1.66042e-11 
8.3202e-10 
-3.37814e-10 
-2.1852e-09 
-1.30173e-10 
-3.2752e-10 
-1.38574e-09 
1.78899e-09 
4.2562e-09 
3.7333e-10 
-3.10641e-11 
-1.53612e-09 
-2.37777e-09 
-5.06254e-10 
6.79449e-10 
4.13934e-10 
5.03529e-10 
2.17159e-09 
8.01115e-10 
4.64896e-10 
4.82808e-10 
9.15655e-10 
5.13865e-10 
1.30412e-10 
5.3515e-10 
1.20243e-09 
-1.74848e-10 
3.28833e-10 
-1.89447e-10 
-1.3892e-10 
-3.96018e-11 
5.87051e-11 
3.53522e-11 
2.57759e-11 
1.76016e-12 
1.27833e-11 
-1.66634e-11 
-2.8908e-11 
4.06678e-11 
2.78109e-11 
3.85051e-10 
-1.33533e-10 
2.96955e-10 
-1.51853e-11 
4.3119e-11 
1.09257e-10 
-1.17631e-09 
2.81105e-11 
1.02176e-09 
4.71944e-10 
5.15465e-10 
8.93351e-10 
2.03117e-09 
-1.60885e-09 
1.58701e-11 
-9.66081e-10 
1.21706e-09 
4.30696e-10 
5.95234e-10 
3.91193e-10 
7.44734e-10 
2.89319e-09 
1.53123e-09 
5.65926e-10 
3.69765e-10 
-1.02926e-10 
5.06476e-10 
5.65687e-11 
1.16062e-10 
-4.20272e-11 
1.28523e-10 
1.55681e-11 
-9.6009e-11 
-1.34483e-10 
-6.08105e-12 
-4.84875e-11 
7.70003e-10 
1.2105e-10 
-9.00286e-12 
-5.24179e-13 
3.13346e-10 
1.02967e-09 
9.46538e-10 
3.88995e-09 
2.19998e-09 
-1.33488e-10 
-3.81952e-10 
3.213e-10 
-8.33006e-10 
1.4151e-09 
8.20727e-10 
-9.28895e-10 
2.78249e-10 
3.09913e-10 
4.03159e-10 
6.74379e-11 
4.19464e-11 
1.6814e-10 
2.00086e-10 
1.82705e-10 
1.55159e-10 
-8.89206e-11 
6.18528e-11 
2.9431e-10 
1.52353e-10 
-3.61722e-10 
-7.0603e-11 
4.25505e-10 
2.86261e-10 
-1.65258e-09 
1.94971e-09 
-1.65725e-10 
7.50364e-10 
4.47057e-09 
9.32037e-12 
2.18083e-09 
-1.75488e-10 
6.61189e-10 
-1.69788e-09 
-2.76901e-10 
1.10409e-10 
4.11703e-11 
7.53341e-11 
5.74175e-11 
3.01392e-10 
2.01679e-10 
9.36227e-11 
-3.6942e-11 
-1.50516e-11 
9.32161e-11 
6.7773e-11 
-3.53294e-11 
-6.05013e-11 
8.77886e-10 
-1.04368e-09 
-3.28104e-10 
-5.43627e-10 
-6.42684e-11 
-1.08978e-09 
5.05254e-10 
4.23921e-10 
8.1962e-10 
4.7996e-10 
4.08294e-10 
4.43964e-11 
1.63057e-10 
-5.14067e-11 
-1.89893e-10 
-1.13132e-10 
-2.94732e-11 
-1.27538e-10 
-1.31394e-10 
-1.09415e-10 
1.02344e-10 
9.17597e-10 
6.78214e-10 
-5.10196e-10 
-5.61554e-11 
-8.42676e-11 
2.51196e-12 
1.09249e-09 
-9.59835e-10 
-6.55054e-10 
1.4889e-09 
2.19565e-10 
1.37996e-10 
2.62445e-10 
-2.89889e-09 
-1.73018e-15 
-2.09551e-09 
-3.05211e-09 
-5.19365e-11 
9.498e-14 
2.24621e-15 
-7.78774e-15 
5.90179e-10 
-2.49735e-14 
9.56097e-12 
-6.62709e-11 
-1.00514e-14 
1.04798e-16 
2.86821e-11 
1.13011e-11 
-8.63772e-10 
-7.83651e-10 
-1.66495e-14 
-1.75479e-10 
2.21664e-15 
-1.07302e-14 
-9.9834e-15 
3.29272e-15 
5.81948e-16 
5.06835e-11 
1.82327e-10 
-2.46617e-12 
2.23413e-10 
6.16456e-10 
-1.19278e-10 
6.03673e-11 
6.4849e-10 
1.59544e-11 
9.5181e-11 
-1.25702e-11 
-1.13543e-11 
1.20231e-09 
6.99113e-12 
9.31655e-10 
1.78336e-10 
7.40533e-11 
-1.8429e-10 
4.6623e-11 
1.66319e-10 
-1.76334e-09 
-2.70004e-10 
-6.48595e-10 
9.29049e-11 
4.36323e-11 
7.41532e-14 
4.79221e-11 
-8.03832e-10 
-1.73714e-14 
6.64486e-14 
1.47828e-11 
-6.29177e-11 
-4.13005e-15 
-4.15058e-11 
-2.2438e-11 
1.15685e-09 
3.26887e-11 
-1.44294e-10 
2.62813e-10 
3.83392e-10 
5.57538e-12 
6.66437e-16 
-3.49492e-11 
-4.13818e-12 
8.52034e-11 
-2.72922e-11 
2.44173e-09 
-1.7648e-09 
-3.94404e-10 
-3.41939e-11 
-1.50818e-10 
-1.08492e-09 
-2.47688e-09 
-1.61366e-09 
1.07768e-10 
-1.94481e-10 
-1.62328e-10 
-8.3606e-14 
-6.23655e-10 
-1.81266e-09 
2.12722e-10 
9.37963e-10 
-1.60854e-10 
6.96982e-10 
3.24426e-10 
4.35953e-10 
-2.66456e-15 
-6.18282e-12 
-6.00283e-11 
-5.05697e-11 
-3.28308e-12 
8.56276e-11 
-7.69865e-11 
-2.17496e-10 
-8.01352e-10 
-2.57229e-10 
1.58211e-09 
1.01672e-10 
-2.81048e-11 
-8.06752e-10 
2.3192e-10 
-1.03074e-10 
-5.26807e-11 
-3.1578e-10 
-1.23179e-10 
-3.63897e-10 
-2.61776e-10 
9.80803e-11 
2.06992e-10 
-2.42735e-10 
1.40447e-10 
-1.13574e-12 
-2.86166e-10 
-5.39012e-11 
-3.85189e-13 
4.57424e-10 
-1.05446e-09 
6.77881e-10 
-4.98706e-10 
-2.16115e-10 
3.45816e-11 
1.28805e-10 
-8.11397e-10 
-7.15872e-10 
-3.64074e-11 
1.03106e-10 
-1.87769e-10 
-5.43425e-10 
7.29679e-10 
-3.25693e-10 
-2.55026e-10 
2.62588e-11 
-1.54565e-11 
-4.21643e-10 
-3.77372e-11 
8.75458e-10 
2.28315e-10 
-3.52445e-10 
1.57993e-10 
-2.34832e-10 
2.51268e-11 
5.64798e-11 
-2.4608e-10 
6.48504e-11 
3.29668e-10 
-6.85792e-11 
3.99998e-10 
-3.25678e-11 
-1.34699e-11 
-6.70583e-11 
2.05971e-10 
-3.70118e-11 
-1.48094e-12 
-7.56781e-11 
1.16446e-11 
9.63957e-10 
1.14022e-10 
4.36065e-10 
3.85551e-11 
-6.42958e-11 
4.28664e-11 
1.70256e-10 
-4.89417e-11 
-1.37569e-10 
1.124e-10 
-6.4289e-17 
8.47244e-12 
-1.4795e-10 
2.70427e-16 
-2.60379e-16 
-2.77033e-15 
2.52855e-15 
1.95702e-10 
-2.99623e-10 
2.4597e-14 
-6.19401e-11 
-1.63812e-11 
9.33087e-12 
3.09481e-11 
-6.65222e-17 
1.82077e-16 
-7.47284e-12 
-1.26891e-10 
2.70366e-10 
-1.13139e-16 
1.18505e-15 
1.93566e-15 
8.20247e-11 
-9.51389e-11 
-1.01101e-11 
2.10859e-10 
-1.21312e-10 
5.26353e-11 
-4.04679e-11 
2.71487e-11 
-4.55429e-12 
2.1889e-11 
-9.77357e-12 
-1.22641e-11 
4.15869e-11 
-2.62711e-11 
6.3134e-11 
-2.30772e-11 
-5.8165e-11 
-7.47468e-11 
-2.4132e-10 
1.34807e-11 
-1.153e-11 
2.45358e-16 
7.77914e-16 
1.90889e-11 
-1.2698e-10 
6.48432e-11 
2.76124e-11 
-3.31613e-12 
1.65646e-11 
7.05206e-11 
-5.67411e-11 
-3.69045e-12 
4.12968e-11 
7.29802e-11 
3.63746e-11 
1.58221e-10 
1.38062e-10 
-6.53886e-11 
-1.24615e-12 
-1.46297e-10 
2.42814e-11 
-1.27216e-10 
8.02119e-13 
-4.20813e-11 
-2.2041e-11 
2.00448e-11 
-5.47699e-11 
-1.87052e-11 
-3.07383e-10 
-1.14457e-11 
-9.08596e-12 
1.13053e-10 
1.39121e-10 
-2.43584e-11 
8.78945e-11 
1.12571e-10 
-5.69835e-11 
1.90381e-10 
-1.32469e-11 
-2.51296e-07 
-4.77786e-07 
-2.05654e-07 
-2.05685e-08 
6.54978e-08 
-4.02664e-07 
-3.56892e-07 
-2.6466e-08 
1.40647e-07 
-2.62713e-07 
-1.16062e-08 
5.39046e-08 
3.53371e-07 
2.72911e-08 
3.89024e-09 
9.81838e-09 
1.76214e-07 
5.8183e-08 
-1.57832e-07 
7.55544e-08 
1.0815e-07 
5.67261e-08 
3.81788e-08 
1.46794e-07 
-1.95255e-08 
-4.29728e-08 
-5.88643e-08 
-7.77101e-08 
-1.69603e-07 
-2.07913e-09 
-4.14902e-15 
1.19781e-09 
1.40961e-10 
-1.82765e-14 
1.14404e-10 
-7.48625e-15 
2.25386e-15 
4.35608e-12 
-1.2992e-09 
3.63742e-10 
-8.12815e-10 
7.69128e-10 
-7.65095e-16 
-4.74465e-10 
-1.48481e-09 
3.73856e-10 
2.81896e-11 
4.8745e-10 
5.64175e-10 
7.84483e-11 
8.5447e-11 
1.97622e-10 
-1.06612e-09 
2.40526e-09 
1.33138e-09 
4.52816e-11 
-5.94523e-15 
3.97371e-10 
3.40377e-10 
4.33261e-11 
-1.14989e-10 
-3.77466e-11 
-2.95343e-10 
-1.13148e-09 
2.34175e-10 
-2.57422e-11 
6.42761e-10 
-4.87554e-11 
3.08738e-12 
8.30216e-10 
1.72503e-10 
-1.46179e-10 
-1.90257e-12 
-3.40024e-11 
-3.00471e-10 
7.45294e-12 
4.7152e-11 
9.24563e-11 
-8.51894e-10 
-7.34346e-10 
1.59161e-10 
-1.74669e-09 
-7.52869e-11 
-1.00639e-10 
1.50363e-10 
2.05089e-10 
3.64137e-10 
-3.86772e-15 
-4.17854e-10 
-9.27621e-11 
-2.70363e-10 
3.38594e-11 
5.6918e-11 
1.55602e-11 
-2.65464e-10 
1.58028e-10 
1.5971e-10 
1.72951e-10 
-6.7373e-11 
-2.27679e-10 
1.17238e-10 
2.1399e-10 
-1.15868e-09 
-2.15498e-10 
-1.96411e-10 
5.27283e-09 
3.37836e-10 
-4.22485e-10 
1.16186e-09 
1.90788e-10 
2.36578e-14 
5.03151e-10 
-7.9009e-11 
1.65427e-09 
5.09155e-12 
1.28367e-09 
-2.82613e-11 
-2.38165e-11 
2.78794e-11 
2.62172e-09 
-4.12871e-10 
7.35086e-11 
-1.56888e-10 
-9.93343e-11 
8.02038e-10 
-1.47545e-10 
-1.57897e-10 
-1.67525e-10 
4.16623e-10 
1.5551e-10 
-5.76598e-10 
-1.14696e-09 
2.67489e-09 
1.25614e-10 
-1.99331e-09 
1.95735e-10 
-2.15986e-09 
8.06003e-10 
7.10237e-10 
-2.06773e-09 
-3.15308e-10 
1.46797e-09 
1.70212e-10 
-1.21896e-10 
2.48775e-10 
2.06009e-09 
5.71135e-10 
2.86481e-09 
6.5831e-10 
2.47806e-09 
3.0707e-10 
4.29016e-10 
-9.68878e-11 
-1.20676e-10 
1.56297e-09 
2.21634e-09 
-3.32814e-11 
3.2864e-09 
3.77019e-10 
-2.03013e-10 
2.86417e-10 
1.06999e-10 
6.37928e-11 
4.00942e-10 
-5.47593e-11 
-1.47802e-10 
1.22625e-10 
2.69208e-10 
8.17813e-11 
1.02534e-09 
9.61048e-11 
2.12407e-10 
1.35141e-10 
1.28194e-09 
1.92535e-10 
9.0759e-10 
-2.91869e-10 
-1.85937e-10 
2.3779e-10 
1.11098e-09 
1.29165e-09 
9.62492e-11 
5.05097e-10 
8.62465e-10 
4.01734e-10 
-2.06377e-10 
-1.02386e-10 
4.83541e-10 
2.82003e-10 
-6.16203e-10 
-7.70123e-11 
-8.34337e-12 
-2.30059e-10 
7.83487e-12 
-2.31623e-10 
6.50557e-11 
-1.31689e-10 
-4.08084e-10 
-4.54497e-10 
-2.64826e-10 
6.11083e-10 
2.61954e-10 
-7.44286e-10 
-1.25961e-10 
5.22791e-10 
6.84208e-10 
1.53039e-09 
6.51578e-10 
9.80531e-11 
7.30538e-10 
-4.28691e-10 
-2.50569e-11 
-2.93507e-10 
-4.11859e-11 
3.60611e-10 
1.02826e-09 
7.12769e-10 
-9.02325e-11 
-5.2134e-10 
-5.36174e-10 
-8.81294e-10 
-8.33177e-11 
1.14403e-10 
4.59956e-11 
9.9727e-10 
6.45889e-10 
2.24004e-10 
-1.89704e-10 
4.25722e-11 
6.11688e-10 
3.9835e-11 
1.47281e-10 
6.09068e-10 
4.8831e-10 
5.57753e-10 
1.55563e-10 
1.63726e-10 
2.27989e-10 
6.39127e-10 
5.96562e-10 
3.41368e-10 
6.53175e-10 
1.51281e-10 
2.0817e-10 
1.719e-10 
2.52518e-10 
4.29921e-10 
2.72099e-10 
3.01082e-10 
1.84098e-10 
-1.49974e-10 
1.18398e-10 
1.331e-10 
6.06342e-12 
-1.82073e-11 
1.97969e-10 
-8.44221e-11 
-7.90421e-12 
7.51211e-11 
-2.36292e-11 
1.85991e-10 
9.95997e-11 
7.643e-11 
-9.86168e-11 
8.14443e-12 
-3.65385e-11 
1.1518e-11 
-6.78758e-11 
1.34496e-11 
-1.63221e-11 
-3.78837e-11 
-6.11673e-11 
2.29033e-10 
1.32111e-10 
2.40801e-10 
2.1316e-10 
9.74339e-11 
2.00246e-10 
1.20924e-10 
1.88516e-10 
2.4902e-10 
-7.93374e-11 
4.52359e-11 
1.66558e-10 
4.33868e-11 
7.24517e-11 
-7.66142e-11 
6.05032e-12 
-3.35352e-11 
-3.73641e-11 
-3.79366e-10 
-4.18034e-09 
1.59691e-09 
6.47028e-10 
3.64223e-10 
-8.98496e-10 
2.02027e-09 
-2.32142e-11 
-1.01257e-10 
-8.84589e-10 
-2.38332e-10 
7.78793e-10 
-7.00265e-10 
3.72975e-11 
3.0616e-11 
-2.61295e-10 
6.19651e-11 
3.1321e-09 
7.33156e-10 
-2.2373e-10 
4.91915e-10 
-5.70834e-10 
-1.43891e-10 
-1.32362e-10 
-3.45721e-10 
2.42517e-10 
8.10263e-11 
2.17277e-10 
-5.08326e-09 
-4.66655e-10 
-1.30408e-09 
-9.9771e-10 
6.63163e-10 
-2.65631e-10 
-1.11126e-09 
4.0961e-10 
9.78518e-11 
2.03122e-11 
2.00376e-09 
5.5364e-11 
4.64332e-09 
-2.98771e-10 
1.176e-09 
3.6611e-11 
-1.93425e-09 
-7.72721e-10 
-1.42256e-09 
-6.88908e-11 
6.73165e-10 
1.62246e-09 
-1.44473e-09 
-5.03968e-10 
1.18504e-09 
-3.23638e-11 
7.90504e-10 
-6.36668e-10 
-5.22014e-10 
7.69838e-10 
-8.06577e-11 
2.74393e-10 
-1.3259e-09 
-3.61341e-10 
-1.61959e-10 
3.21015e-10 
5.70224e-10 
-2.14649e-10 
1.24643e-09 
2.62793e-10 
-6.52141e-10 
1.41392e-09 
-1.16498e-09 
1.01016e-09 
-1.16868e-09 
7.43337e-10 
-6.48202e-10 
-2.53901e-10 
-4.07058e-10 
1.12125e-09 
2.68438e-10 
3.6614e-10 
4.60416e-10 
-4.13415e-10 
-1.11164e-09 
1.86597e-10 
1.31747e-09 
-1.02255e-10 
-8.9769e-10 
2.6777e-10 
2.52222e-09 
-2.04453e-09 
-5.8227e-10 
1.26159e-10 
6.28322e-10 
-7.19527e-10 
-1.35414e-09 
1.07687e-09 
1.59233e-09 
-4.39266e-10 
-1.32277e-09 
7.64908e-12 
2.94776e-09 
-1.00037e-09 
1.95914e-09 
-8.76314e-10 
-1.73472e-09 
1.49873e-09 
1.05757e-09 
-2.8627e-11 
-4.37741e-10 
-7.8142e-10 
-7.12754e-10 
3.40206e-10 
2.87267e-10 
8.32686e-11 
3.12255e-10 
1.9893e-10 
-1.32266e-10 
-5.75935e-10 
-2.11145e-10 
2.85954e-10 
6.89471e-10 
-4.27517e-11 
-3.529e-10 
1.26589e-10 
1.01314e-09 
-1.06837e-11 
1.51384e-09 
-4.94878e-10 
3.43974e-10 
3.41788e-10 
-9.43058e-11 
4.34056e-10 
-1.63214e-09 
6.46219e-10 
-2.40991e-09 
7.76623e-10 
4.71381e-11 
-4.29311e-10 
4.86393e-10 
-2.31279e-10 
-1.39104e-09 
2.64743e-11 
-1.96616e-09 
-1.80038e-09 
4.29175e-10 
3.91361e-10 
4.93753e-10 
-3.06485e-10 
-8.90026e-10 
-1.74079e-09 
4.40702e-10 
2.36063e-10 
-3.85169e-10 
-4.54994e-11 
-5.20103e-10 
6.32991e-10 
6.52449e-11 
1.91373e-10 
3.61281e-10 
-1.45037e-10 
-1.3916e-09 
-2.6854e-10 
3.4467e-10 
-2.4341e-10 
9.92536e-10 
-5.26833e-10 
-3.88707e-10 
4.21333e-10 
5.59829e-10 
4.50805e-10 
-5.59458e-10 
-2.92992e-10 
-2.05636e-10 
-1.57078e-09 
-3.90623e-10 
1.88891e-10 
6.52334e-10 
-4.59853e-10 
-9.38771e-11 
2.1003e-10 
5.02808e-10 
-4.76423e-10 
-3.44433e-10 
3.23644e-10 
6.62293e-10 
2.43375e-11 
-3.43113e-10 
-2.41797e-10 
6.08507e-10 
1.81133e-10 
-2.90332e-10 
-3.49047e-10 
-6.28578e-10 
-4.94396e-10 
-3.94362e-11 
-7.16221e-10 
-9.57181e-11 
-1.76079e-10 
-8.73901e-11 
1.06745e-10 
-1.44474e-09 
-4.00122e-10 
1.04777e-09 
-7.25668e-11 
-5.04265e-10 
3.52172e-10 
8.8536e-10 
8.88797e-10 
-4.49053e-10 
6.08024e-10 
8.24847e-10 
-3.65057e-10 
-3.75404e-10 
2.44504e-10 
6.37806e-10 
-2.18495e-11 
-1.84298e-10 
2.78563e-10 
4.42198e-10 
-1.38418e-10 
-2.35724e-10 
3.82794e-11 
1.2726e-10 
-3.03925e-10 
9.77663e-10 
1.70708e-10 
-8.73624e-10 
7.34319e-10 
2.76796e-09 
3.03014e-10 
1.13508e-11 
8.30756e-11 
2.11809e-09 
2.31408e-09 
-1.8153e-09 
-2.89583e-10 
2.64994e-09 
-2.00383e-09 
-1.73504e-09 
-2.4294e-09 
-4.48213e-10 
-8.96605e-10 
2.11476e-09 
-8.46335e-11 
-2.17063e-09 
5.36775e-11 
7.22609e-10 
-1.18086e-10 
-5.07704e-10 
1.23448e-09 
1.3785e-09 
-6.43569e-10 
2.34876e-10 
-4.09266e-10 
-5.45233e-10 
-3.98294e-11 
1.74662e-09 
-1.04084e-10 
-1.0972e-09 
-8.85868e-11 
2.00842e-09 
7.43339e-10 
3.12458e-11 
7.10731e-10 
-1.16996e-09 
-4.93832e-11 
1.13334e-10 
-1.93334e-10 
-8.70865e-10 
-5.38712e-10 
7.95601e-10 
2.9036e-10 
-1.1923e-09 
4.99588e-10 
6.5413e-10 
-5.91646e-10 
-1.12955e-09 
8.06408e-10 
9.81485e-10 
3.08896e-11 
-8.53539e-10 
-1.99702e-10 
-6.63353e-10 
5.02235e-10 
1.32959e-09 
1.23442e-10 
-8.59081e-10 
-1.88005e-10 
-7.96189e-10 
1.26003e-09 
4.55682e-10 
-1.96784e-10 
-1.03504e-09 
3.95665e-10 
7.62756e-10 
-6.17602e-12 
6.32097e-10 
-1.6331e-09 
3.17021e-11 
4.97657e-10 
1.21514e-09 
-4.14101e-10 
-4.83054e-10 
3.41755e-10 
-4.86077e-10 
1.15929e-09 
1.62951e-09 
1.08697e-09 
2.26238e-09 
2.60382e-10 
4.32177e-10 
2.00315e-10 
1.56387e-09 
7.40441e-10 
-8.76803e-10 
1.65939e-10 
-4.2232e-10 
-1.22985e-09 
1.30978e-09 
-1.07801e-09 
2.06655e-10 
-1.88374e-10 
-4.39651e-10 
3.26105e-10 
1.11811e-09 
-6.57495e-10 
-6.56714e-10 
3.88098e-10 
-1.99616e-10 
3.25763e-10 
1.37509e-10 
-1.12623e-11 
-4.88609e-10 
-3.17291e-11 
-1.70449e-10 
1.74723e-10 
1.01467e-09 
1.53518e-10 
-9.28054e-10 
-7.17119e-12 
6.53741e-10 
4.91447e-11 
4.45035e-10 
-4.41637e-10 
4.66876e-10 
-4.87703e-12 
2.46063e-10 
1.49746e-10 
9.19989e-10 
-6.18858e-10 
-7.51211e-11 
3.07082e-10 
3.39763e-10 
-1.26555e-09 
-1.41751e-10 
6.74672e-10 
2.61434e-10 
-6.10909e-10 
3.33918e-10 
-6.70948e-11 
1.64699e-09 
7.37086e-10 
-5.31416e-10 
-2.6041e-10 
-2.01505e-09 
8.02812e-10 
1.22415e-09 
-5.35083e-10 
-4.77121e-10 
-2.40285e-10 
4.91939e-10 
3.6681e-10 
-6.62921e-10 
2.06718e-11 
3.41698e-10 
-1.16117e-10 
5.81085e-10 
2.53116e-10 
-2.10848e-10 
4.49253e-11 
-6.94531e-10 
1.02976e-09 
4.6507e-10 