<?xml version="1.0"?>
<VTKFile type="UnstructuredGrid" version="0.1" byte_order="LittleEndian">
<UnstructuredGrid>
<Piece NumberOfPoints="11"  NumberOfCells="10">
<Points>
 <DataArray type="Float32" NumberOfComponents="3" format="ascii">
  0.500000000000000  1.000000000000000  1.000000000000000  
  0.000000000000000  1.000000000000000  1.000000000000000  
  0.500000000000000  1.000000000000000  0.500000000000000  
  0.000000000000000  1.000000000000000  0.500000000000000  
  0.000000000000000  1.000000000000000  0.000000000000000  
  0.500000000000000  0.500000000000000  1.000000000000000  
  0.000000000000000  0.500000000000000  0.000000000000000  
  0.000000000000000  0.500000000000000  0.500000000000000  
  1.000000000000000  1.000000000000000  1.000000000000000  
  0.500000000000000  1.000000000000000  0.000000000000000  
  0.500000000000000  0.500000000000000  0.000000000000000  

</DataArray>
</Points>
<PointData>
<DataArray type="Float32" Name="residual" NumberOfComponents="3" format="ascii">
-0.000000000000500 0.000000000000250 0.000000000000250 
-0.083333335816860 0.000000000000250 0.000000000000250 
-0.000000000000500 0.000000000000250 0.000000000000125 
-0.083333335816860 0.000000000000250 0.000000000000125 
-0.083333335816860 0.000000000000250 -0.000000000000323 
-0.000000000000500 0.000000000000125 0.000000000000250 
-0.083333335816860 0.000000000000125 -0.000000000000159 
-0.333333343267441 0.000000000000125 0.000000000000125 
-0.000000000000500 0.000000000000250 0.000000000000250 
-0.000000000000500 0.000000000000250 -0.000000000000246 
-0.000000000000500 0.000000000000125 -0.000000000001227 

</DataArray>
<DataArray type="Float32" Name="solution" NumberOfComponents="3" format="ascii">
0.500000000000000 -0.250000000000000 -0.250000000000000 
0.000000000000000 -0.250000000000000 -0.250000000000000 
0.500000000000000 -0.250000000000000 -0.125000000000000 
0.000000000000000 -0.250000000000000 -0.125000000000000 
0.000000000000000 -0.250000000000000 0.000000000000000 
0.500000000000000 -0.125000000000000 -0.250000000000000 
0.000000000000000 -0.125000000000000 0.000000000000000 
0.000000000000000 -0.125000000000000 -0.125000000000000 
1.000000000000000 -0.250000000000000 -0.250000000000000 
0.500000000000000 -0.250000000000000 0.000000000000000 
0.500000000000000 -0.125000000000000 0.000000000000000 

</DataArray>
</PointData>
<Cells>
<DataArray type="Int32"  Name="connectivity" format="ascii">
 2 1 3 5 0 5 1 2 0 5 2 8 7 10 2 5 4 7 2 3 7 2 3 5 4 7 6 2 9 2 4 10 4 6 10 2 6 7 10 2
</DataArray>
<DataArray type="Int32" Name="offsets" format="ascii">
 4  8  12  16  20  24  28  32  36  40 
</DataArray>
<DataArray type="UInt8" Name="types" format="ascii">
 10  10  10  10  10  10  10  10  10  10 
</DataArray>
</Cells>
<CellData Scalars="partId">
<DataArray type="Int32" Name="partId" format="ascii">
 3  3  3  3  3  3  3  3  3  3 
</DataArray>
</CellData>
</Piece>
</UnstructuredGrid>
</VTKFile>
