<?xml version="1.0"?>
<VTKFile type="UnstructuredGrid" version="0.1" byte_order="LittleEndian">
<UnstructuredGrid>
<Piece NumberOfPoints="11"  NumberOfCells="11">
<Points>
 <DataArray type="Float32" NumberOfComponents="3" format="ascii">
  0.500000000000000  0.000000000000000  0.500000000000000  
  1.000000000000000  0.500000000000000  0.000000000000000  
  1.000000000000000  0.000000000000000  0.000000000000000  
  0.500000000000000  0.500000000000000  0.000000000000000  
  0.000000000000000  0.000000000000000  0.000000000000000  
  0.500000000000000  0.000000000000000  0.000000000000000  
  1.000000000000000  0.500000000000000  0.500000000000000  
  0.500000000000000  0.500000000000000  1.000000000000000  
  1.000000000000000  0.000000000000000  0.500000000000000  
  0.500000000000000  0.000000000000000  1.000000000000000  
  1.000000000000000  0.000000000000000  1.000000000000000  

</DataArray>
</Points>
<PointData>
<DataArray type="Float32" Name="residual" NumberOfComponents="3" format="ascii">
-0.000000000000500 -0.000000000001342 0.000000000000125 
-0.000000000000500 0.000000000000125 -0.000000000000261 
-0.000000000000500 -0.000000000000287 -0.000000000000260 
-0.000000000000500 0.000000000000125 -0.000000000001227 
-0.083333335816860 -0.000000000000309 -0.000000000000293 
-0.000000000000500 -0.000000000000149 -0.000000000000223 
0.000000000001000 0.000000000000125 0.000000000000125 
-0.000000000000500 0.000000000000125 0.000000000000250 
-0.000000000000500 -0.000000000000139 0.000000000000125 
-0.000000000000500 -0.000000000000163 0.000000000000250 
-0.000000000000500 -0.000000000000303 0.000000000000250 

</DataArray>
<DataArray type="Float32" Name="solution" NumberOfComponents="3" format="ascii">
0.500000000000000 0.000000000000000 -0.125000000000000 
1.000000000000000 -0.125000000000000 0.000000000000000 
1.000000000000000 0.000000000000000 0.000000000000000 
0.500000000000000 -0.125000000000000 0.000000000000000 
0.000000000000000 0.000000000000000 0.000000000000000 
0.500000000000000 0.000000000000000 0.000000000000000 
1.000000000000000 -0.125000000000000 -0.125000000000000 
0.500000000000000 -0.125000000000000 -0.250000000000000 
1.000000000000000 0.000000000000000 -0.125000000000000 
0.500000000000000 0.000000000000000 -0.250000000000000 
1.000000000000000 0.000000000000000 -0.250000000000000 

</DataArray>
</PointData>
<Cells>
<DataArray type="Int32"  Name="connectivity" format="ascii">
 0 10 8 6 9 7 10 6 0 6 7 9 0 10 6 9 0 8 2 6 5 0 2 6 2 6 1 3 5 2 3 6 5 0 6 3 0 6 3 7 4 0 5 3
</DataArray>
<DataArray type="Int32" Name="offsets" format="ascii">
 4  8  12  16  20  24  28  32  36  40  44 
</DataArray>
<DataArray type="UInt8" Name="types" format="ascii">
 10  10  10  10  10  10  10  10  10  10  10 
</DataArray>
</Cells>
<CellData Scalars="partId">
<DataArray type="Int32" Name="partId" format="ascii">
 0  0  0  0  0  0  0  0  0  0  0 
</DataArray>
</CellData>
</Piece>
</UnstructuredGrid>
</VTKFile>
