<?xml version="1.0"?>
<VTKFile type="UnstructuredGrid" version="0.1" byte_order="LittleEndian">
<UnstructuredGrid>
<Piece NumberOfPoints="12"  NumberOfCells="11">
<Points>
 <DataArray type="Float32" NumberOfComponents="3" format="ascii">
  0.000000000000000  0.000000000000000  0.500000000000000  
  0.500000000000000  0.000000000000000  0.500000000000000  
  0.000000000000000  1.000000000000000  0.500000000000000  
  0.500000000000000  0.500000000000000  0.000000000000000  
  0.000000000000000  0.500000000000000  0.500000000000000  
  0.000000000000000  0.000000000000000  0.000000000000000  
  0.000000000000000  0.500000000000000  1.000000000000000  
  0.500000000000000  0.000000000000000  1.000000000000000  
  0.000000000000000  0.000000000000000  1.000000000000000  
  0.000000000000000  0.500000000000000  0.000000000000000  
  0.500000000000000  0.500000000000000  1.000000000000000  
  0.000000000000000  1.000000000000000  1.000000000000000  

</DataArray>
</Points>
<PointData>
<DataArray type="Float32" Name="residual" NumberOfComponents="3" format="ascii">
-0.083333335816860 -0.000000000000227 0.000000000000125 
-0.000000000000500 -0.000000000001342 0.000000000000125 
-0.083333335816860 0.000000000000250 0.000000000000125 
-0.000000000000500 0.000000000000125 -0.000000000001227 
-0.333333343267441 0.000000000000125 0.000000000000125 
-0.083333335816860 -0.000000000000309 -0.000000000000293 
-0.083333335816860 0.000000000000125 0.000000000000250 
-0.000000000000500 -0.000000000000163 0.000000000000250 
-0.083333335816860 -0.000000000000332 0.000000000000250 
-0.083333335816860 0.000000000000125 -0.000000000000159 
-0.000000000000500 0.000000000000125 0.000000000000250 
-0.083333335816860 0.000000000000250 0.000000000000250 

</DataArray>
<DataArray type="Float32" Name="solution" NumberOfComponents="3" format="ascii">
0.000000000000000 0.000000000000000 -0.125000000000000 
0.500000000000000 0.000000000000000 -0.125000000000000 
0.000000000000000 -0.250000000000000 -0.125000000000000 
0.500000000000000 -0.125000000000000 0.000000000000000 
0.000000000000000 -0.125000000000000 -0.125000000000000 
0.000000000000000 0.000000000000000 0.000000000000000 
0.000000000000000 -0.125000000000000 -0.250000000000000 
0.500000000000000 0.000000000000000 -0.250000000000000 
0.000000000000000 0.000000000000000 -0.250000000000000 
0.000000000000000 -0.125000000000000 0.000000000000000 
0.500000000000000 -0.125000000000000 -0.250000000000000 
0.000000000000000 -0.250000000000000 -0.250000000000000 

</DataArray>
</PointData>
<Cells>
<DataArray type="Int32"  Name="connectivity" format="ascii">
 6 10 4 11 1 4 0 10 5 1 3 4 5 1 4 0 11 4 2 10 4 8 0 10 1 8 7 10 6 10 8 4 9 4 5 3 3 1 10 4 8 0 10 1
</DataArray>
<DataArray type="Int32" Name="offsets" format="ascii">
 4  8  12  16  20  24  28  32  36  40  44 
</DataArray>
<DataArray type="UInt8" Name="types" format="ascii">
 10  10  10  10  10  10  10  10  10  10  10 
</DataArray>
</Cells>
<CellData Scalars="partId">
<DataArray type="Int32" Name="partId" format="ascii">
 1  1  1  1  1  1  1  1  1  1  1 
</DataArray>
</CellData>
</Piece>
</UnstructuredGrid>
</VTKFile>
